read using pysimm.system.read_mol

6244 atoms
6558 bonds
12559 angles
19373 dihedrals
17 impropers

12 atom types
15 bond types
25 angle types
16 dihedral types
3 improper types

0.000000 229.992000 xlo xhi
0.000000 229.992000 ylo yhi
0.000000 229.992000 zlo zhi

Masses

   1	32.06	# ss
   2	12.01	# c2
   3	1.008	# hc
   4	12.01	# c3
   5	16.0	# oh
   6	1.008	# ho
   7	12.01	# c
   8	14.01	# n2
   9	14.01	# n3
  10	1.008	# hn
  11	1.008	# h4
  12	16.0	# os

Pair Coeffs

   1	0.2824	3.532413417426445	# ss
   2	0.0988	3.3152123099438304	# c2
   3	0.0208	2.600176998764394	# hc
   4	0.1078	3.397709531243626	# c3
   5	0.093	3.242871334030835	# oh
   6	0.0047	0.5379246460131368	# ho
   7	0.0988	3.3152123099438304	# c
   8	0.0941	3.3841678707278926	# n2
   9	0.0858	3.36510263815969	# n3
  10	0.01	1.1064962079303013	# hn
  11	0.0161	2.536388650545546	# h4
  12	0.0726	3.156097798883966	# os

Bond Coeffs

   1	246.19	1.736	# c2,ss
   2	393.86	1.087	# c2,hc
   3	481.83	1.334	# c2,c2
   4	375.92	1.097	# c3,hc
   5	232.52	1.538	# c3,c3
   6	255.56	1.51	# c2,c3
   7	563.51	0.973	# ho,oh
   8	383.13	1.351	# c,oh
   9	368.17	1.406	# c,c2
  10	518.67	1.282	# c2,n2
  11	394.23	1.087	# c2,h4
  12	412.66	1.34	# c2,n3
  13	511.28	1.019	# hn,n3
  14	284.76	1.432	# c3,os
  15	372.94	1.358	# c,os

Angle Coeffs

   1	75.153	99.56	# c2,ss,c2
   2	50.527	119.7	# c2,c2,hc
   3	71.539	121.81	# c2,c2,c2
   4	64.815	122.35	# c2,c2,ss
   5	64.888	111.51	# c3,c3,c3
   6	66.132	123.63	# c2,c2,c3
   7	38.96	107.58	# hc,c3,hc
   8	46.816	109.8	# c3,c3,hc
   9	47.475	110.36	# c2,c3,hc
  10	65.459	111.56	# c2,c3,c3
  11	51.617	106.55	# c,oh,ho
  12	48.494	119.7	# c,c2,hc
  13	69.891	120.7	# c,c2,c2
  14	69.337	116.78	# c2,c,c2
  15	89.778	126.01	# c2,c2,n2
  16	73.202	118.18	# c2,n2,c2
  17	83.96	123.43	# c3,c2,n2
  18	49.47	119.38	# c2,n3,hn
  19	49.914	122.67	# c2,c2,h4
  20	68.168	124.68	# c2,n3,c2
  21	88.404	124.55	# c2,c2,n3
  22	63.539	119.66	# c3,c2,ss
  23	65.889	119.7	# c,c2,c3
  24	85.306	107.97	# c3,c3,os
  25	66.906	115.98	# c,os,c3

Dihedral Coeffs

   1	1	1.1	2	180	# X,c2,ss,X
   2	1	6.65	2	180	# X,c2,c2,X
   3	2	0.08	3	0	0.08	3	0	# hc,c3,c3,c3
   4	1	0.0	2	0	# X,c2,c3,X
   5	2	0.36	3	180	1.47	1	0	# hc,c3,c2,c2
   6	2	5.29	2	180	0.4	1	180	# c3,c2,c2,c3
   7	1	0.15555555555555556	3	0	# X,c3,c3,X
   8	3	0.13	3	0	0.29	2	180	0.11	1	0	# c3,c3,c3,c3
   9	1	0.12	3	0	# hc,c3,c3,hc
  10	1	2.175	2	180	# X,c,c2,X
  11	1	2.3	2	180	# X,c,oh,X
  12	1	4.15	2	180	# X,c2,n2,X
  13	1	0.3	2	180	# X,c2,n3,X
  14	1	2.7	2	180	# X,c,os,X
  15	2	0.383	3	0	0.8	1	180	# c3,c3,os,c
  16	2	0.0	3	0	0.25	1	0	# hc,c3,c3,os

Improper Coeffs

   1	1.1	-1	2	# c2,c3,c2,n2
   2	1.1	-1	2	# c2,c,c2,c3
   3	1.1	-1	2	# c2,c2,c,c3

Atoms

   1	1	2	0	115.461	115.772	114.02
   2	1	2	0	114.092	115.517	114.14
   3	1	1	0	112.837	116.07	113.11
   4	1	2	0	111.615	115.287	114.03
   5	1	2	0	110.23	115.295	113.77
   6	1	2	0	109.375	114.599	114.63
   7	1	2	0	109.882	113.909	115.72
   8	1	2	0	111.257	113.905	115.97
   9	1	2	0	112.155	114.602	115.12
  10	1	2	0	113.598	114.738	115.18
  11	1	2	0	114.531	114.22	116.1
  12	1	2	0	115.9	114.475	115.97
  13	1	1	0	117.155	113.922	117.0
  14	1	2	0	118.376	114.704	116.09
  15	1	2	0	119.762	114.696	116.35
  16	1	2	0	120.617	115.392	115.49
  17	1	2	0	120.11	116.082	114.4
  18	1	2	0	118.735	116.087	114.15
  19	1	2	0	117.837	115.389	115.0
  20	1	2	0	116.393	115.254	114.93
  21	1	3	0	115.814	116.385	113.19
  22	1	3	0	109.831	115.835	112.92
  23	1	3	0	108.305	114.6	114.43
  24	1	3	0	109.209	113.369	116.38
  25	1	3	0	111.637	113.359	116.83
  26	1	3	0	114.177	113.606	116.93
  27	1	3	0	120.161	114.156	117.2
  28	1	3	0	121.687	115.392	115.68
  29	1	3	0	120.782	116.622	113.74
  30	1	3	0	118.355	116.633	113.29
  31	2	2	0	165.836	62.516	166.77
  32	2	2	0	166.399	62.628	165.5
  33	2	1	0	166.669	61.367	164.37
  34	2	2	0	167.346	62.428	163.2
  35	2	2	0	167.833	62.08	161.93
  36	2	2	0	168.353	63.08	161.11
  37	2	2	0	168.391	64.397	161.54
  38	2	2	0	167.907	64.737	162.8
  39	2	2	0	167.371	63.745	163.67
  40	2	2	0	166.818	63.858	165.0
  41	2	2	0	166.652	64.98	165.84
  42	2	2	0	166.088	64.868	167.11
  43	2	1	0	165.818	66.129	168.24
  44	2	2	0	165.141	65.068	169.41
  45	2	2	0	164.655	65.415	170.68
  46	2	2	0	164.134	64.416	171.51
  47	2	2	0	164.096	63.099	171.07
  48	2	2	0	164.581	62.759	169.81
  49	2	2	0	165.117	63.751	168.94
  50	2	2	0	165.669	63.638	167.61
  51	2	3	0	165.519	61.538	167.13
  52	2	3	0	167.804	61.049	161.59
  53	2	3	0	168.731	62.821	160.12
  54	2	3	0	168.798	65.171	160.89
  55	2	3	0	167.944	65.774	163.13
  56	2	3	0	166.969	65.958	165.48
  57	2	3	0	164.683	66.447	171.02
  58	2	3	0	163.756	64.674	172.49
  59	2	3	0	163.69	62.325	171.72
  60	2	3	0	164.544	61.722	169.48
  61	3	2	0	63.715	167.207	64.8
  62	3	2	0	64.93	166.86	64.2
  63	3	1	0	66.478	167.507	64.55
  64	3	2	0	67.257	166.517	63.38
  65	3	2	0	68.633	166.492	63.08
  66	3	2	0	69.096	165.617	62.09
  67	3	2	0	68.214	164.783	61.42
  68	3	2	0	66.85	164.812	61.73
  69	3	2	0	66.345	165.69	62.72
  70	3	2	0	64.99	165.892	63.2
  71	3	2	0	63.781	165.28	62.82
  72	3	2	0	62.566	165.628	63.42
  73	3	1	0	61.018	164.98	63.07
  74	3	2	0	60.239	165.971	64.24
  75	3	2	0	58.863	165.996	64.54
  76	3	2	0	58.4	166.871	65.52
  77	3	2	0	59.282	167.704	66.19
  78	3	2	0	60.646	167.676	65.89
  79	3	2	0	61.151	166.797	64.9
  80	3	2	0	62.506	166.595	64.42
  81	3	3	0	63.703	167.969	65.57
  82	3	3	0	69.326	167.144	63.6
  83	3	3	0	70.157	165.59	61.85
  84	3	3	0	68.582	164.104	60.66
  85	3	3	0	66.172	164.152	61.19
  86	3	3	0	63.793	164.519	62.05
  87	3	3	0	58.17	165.343	64.02
  88	3	3	0	57.339	166.897	65.76
  89	3	3	0	58.914	168.383	66.96
  90	3	3	0	61.324	168.336	66.43
  91	4	2	0	90.095	90.484	141.06
  92	4	2	0	89.421	89.726	142.02
  93	4	1	0	89.368	90.006	143.71
  94	4	2	0	88.37	88.642	144.0
  95	4	2	0	87.879	88.205	145.25
  96	4	2	0	87.074	87.065	145.3
  97	4	2	0	86.761	86.374	144.14
  98	4	2	0	87.251	86.812	142.91
  99	4	2	0	88.072	87.967	142.82
 100	4	2	0	88.686	88.601	141.67
 101	4	2	0	88.649	88.259	140.3
 102	4	2	0	89.322	89.018	139.34
 103	4	1	0	89.376	88.737	137.65
 104	4	2	0	90.374	90.102	137.36
 105	4	2	0	90.864	90.539	136.11
 106	4	2	0	91.67	91.678	136.06
 107	4	2	0	91.982	92.37	137.22
 108	4	2	0	91.493	91.932	138.46
 109	4	2	0	90.672	90.777	138.54
 110	4	2	0	90.057	90.143	139.7
 111	4	3	0	90.661	91.359	141.37
 112	4	3	0	88.123	88.745	146.16
 113	4	3	0	86.691	86.72	146.26
 114	4	3	0	86.133	85.487	144.19
 115	4	3	0	86.995	86.258	142.01
 116	4	3	0	88.083	87.385	139.99
 117	4	3	0	90.62	89.999	135.2
 118	4	3	0	92.053	92.023	135.1
 119	4	3	0	92.61	93.257	137.17
 120	4	3	0	91.748	92.486	139.36
 121	5	2	0	192.537	191.144	37.22
 122	5	2	0	191.216	190.823	37.54
 123	5	1	0	190.256	189.576	36.86
 124	5	2	0	188.9	189.959	37.84
 125	5	2	0	187.648	189.311	37.84
 126	5	2	0	186.651	189.759	38.71
 127	5	2	0	186.889	190.825	39.56
 128	5	2	0	188.133	191.464	39.56
 129	5	2	0	189.169	191.035	38.69
 130	5	2	0	190.52	191.536	38.51
 131	5	2	0	191.198	192.591	39.15
 132	5	2	0	192.519	192.913	38.83
 133	5	1	0	193.479	194.159	39.51
 134	5	2	0	194.836	193.776	38.53
 135	5	2	0	196.087	194.424	38.53
 136	5	2	0	197.084	193.977	37.66
 137	5	2	0	196.846	192.91	36.81
 138	5	2	0	195.603	192.272	36.81
 139	5	2	0	194.566	192.701	37.68
 140	5	2	0	193.216	192.199	37.86
 141	5	3	0	193.053	190.566	36.46
 142	5	3	0	187.459	188.475	37.17
 143	5	3	0	185.682	189.265	38.71
 144	5	3	0	186.108	191.168	40.24
 145	5	3	0	188.302	192.299	40.24
 146	5	3	0	190.682	193.169	39.91
 147	5	3	0	196.276	195.26	39.2
 148	5	3	0	198.054	194.47	37.66
 149	5	3	0	197.628	192.567	36.13
 150	5	3	0	195.433	191.437	36.13
 151	6	2	0	141.497	37.837	90.46
 152	6	2	0	141.986	38.139	89.18
 153	6	1	0	143.626	38.206	88.69
 154	6	2	0	143.223	38.623	87.08
 155	6	2	0	144.121	38.857	86.02
 156	6	2	0	143.614	39.189	84.76
 157	6	2	0	142.246	39.287	84.56
 158	6	2	0	141.36	39.053	85.61
 159	6	2	0	141.841	38.714	86.91
 160	6	2	0	141.123	38.431	88.13
 161	6	2	0	139.743	38.411	88.41
 162	6	2	0	139.254	38.109	89.68
 163	6	1	0	137.614	38.042	90.17
 164	6	2	0	138.017	37.625	91.79
 165	6	2	0	137.118	37.391	92.85
 166	6	2	0	137.625	37.059	94.11
 167	6	2	0	138.993	36.961	94.31
 168	6	2	0	139.88	37.194	93.25
 169	6	2	0	139.398	37.534	91.96
 170	6	2	0	140.117	37.817	90.73
 171	6	3	0	142.199	37.613	91.26
 172	6	3	0	145.194	38.781	86.17
 173	6	3	0	144.3	39.372	83.94
 174	6	3	0	141.859	39.546	83.58
 175	6	3	0	140.29	39.134	85.44
 176	6	3	0	139.04	38.635	87.61
 177	6	3	0	136.046	37.467	92.69
 178	6	3	0	136.94	36.876	94.93
 179	6	3	0	139.381	36.702	95.29
 180	6	3	0	140.949	37.114	93.43
 181	7	2	0	37.019	141.426	192.11
 182	7	2	0	38.101	141.51	192.99
 183	7	1	0	38.252	142.54	194.36
 184	7	2	0	39.81	141.944	194.75
 185	7	2	0	40.621	142.352	195.83
 186	7	2	0	41.87	141.755	196.01
 187	7	2	0	42.309	140.774	195.13
 188	7	2	0	41.501	140.373	194.06
 189	7	2	0	40.224	140.96	193.85
 190	7	2	0	39.226	140.709	192.83
 191	7	2	0	39.229	139.814	191.74
 192	7	2	0	38.147	139.73	190.86
 193	7	1	0	37.996	138.699	189.5
 194	7	2	0	36.438	139.296	189.11
 195	7	2	0	35.627	138.888	188.03
 196	7	2	0	34.378	139.485	187.85
 197	7	2	0	33.939	140.466	188.73
 198	7	2	0	34.747	140.866	189.8
 199	7	2	0	36.024	140.28	190.0
 200	7	2	0	37.022	140.531	191.03
 201	7	3	0	36.154	142.067	192.27
 202	7	3	0	40.279	143.12	196.52
 203	7	3	0	42.503	142.063	196.83
 204	7	3	0	43.283	140.313	195.27
 205	7	3	0	41.86	139.603	193.38
 206	7	3	0	40.093	139.173	191.59
 207	7	3	0	35.969	138.119	187.34
 208	7	3	0	33.745	139.177	187.02
 209	7	3	0	32.965	140.926	188.59
 210	7	3	0	34.388	141.637	190.48
 211	8	2	0	51.787	76.442	75.54
 212	8	2	0	52.108	77.304	76.59
 213	8	1	0	53.5	78.294	76.73
 214	8	2	0	53.014	78.923	78.26
 215	8	2	0	53.71	79.863	79.04
 216	8	2	0	53.163	80.265	80.26
 217	8	2	0	51.952	79.747	80.69
 218	8	2	0	51.265	78.815	79.91
 219	8	2	0	51.793	78.384	78.66
 220	8	2	0	51.268	77.441	77.69
 221	8	2	0	50.085	76.678	77.7
 222	8	2	0	49.764	75.816	76.65
 223	8	1	0	48.372	74.826	76.51
 224	8	2	0	48.858	74.197	74.99
 225	8	2	0	48.162	73.257	74.2
 226	8	2	0	48.709	72.855	72.98
 227	8	2	0	49.92	73.372	72.55
 228	8	2	0	50.606	74.304	73.33
 229	8	2	0	50.079	74.736	74.58
 230	8	2	0	50.604	75.679	75.55
 231	8	3	0	52.467	76.358	74.7
 232	8	3	0	54.66	80.27	78.7
 233	8	3	0	53.693	80.99	80.87
 234	8	3	0	51.532	80.066	81.64
 235	8	3	0	50.317	78.419	80.26
 236	8	3	0	49.405	76.762	78.55
 237	8	3	0	47.212	72.85	74.54
 238	8	3	0	48.179	72.13	72.37
 239	8	3	0	50.34	73.054	71.6
 240	8	3	0	51.555	74.7	72.98
 241	9	2	0	152.141	178.575	179.04
 242	9	2	0	152.617	179.469	178.07
 243	9	1	0	151.763	180.086	176.72
 244	9	2	0	153.096	181.027	176.19
 245	9	2	0	153.14	181.863	175.06
 246	9	2	0	154.316	182.56	174.77
 247	9	2	0	155.425	182.431	175.59
 248	9	2	0	155.375	181.599	176.72
 249	9	2	0	154.195	180.877	177.04
 250	9	2	0	153.913	179.968	178.13
 251	9	2	0	154.722	179.537	179.2
 252	9	2	0	154.247	178.643	180.16
 253	9	1	0	155.101	178.025	181.51
 254	9	2	0	153.768	177.085	182.04
 255	9	2	0	153.723	176.248	183.18
 256	9	2	0	152.547	175.552	183.46
 257	9	2	0	151.438	175.681	182.64
 258	9	2	0	151.488	176.512	181.52
 259	9	2	0	152.668	177.235	181.2
 260	9	2	0	152.951	178.144	180.1
 261	9	3	0	151.121	178.203	178.96
 262	9	3	0	152.273	181.966	174.41
 263	9	3	0	154.36	183.208	173.9
 264	9	3	0	156.338	182.976	175.37
 265	9	3	0	156.254	181.51	177.35
 266	9	3	0	155.742	179.908	179.28
 267	9	3	0	154.591	176.145	183.82
 268	9	3	0	152.503	174.904	184.33
 269	9	3	0	150.526	175.135	182.87
 270	9	3	0	150.61	176.602	180.88
 271	10	2	0	204.882	26.557	128.43
 272	10	2	0	205.506	26.221	127.22
 273	10	1	0	206.552	27.205	126.29
 274	10	2	0	206.775	25.995	125.09
 275	10	2	0	207.567	26.092	123.93
 276	10	2	0	207.634	25.002	123.06
 277	10	2	0	206.931	23.839	123.34
 278	10	2	0	206.147	23.748	124.49
 279	10	2	0	206.057	24.838	125.4
 280	10	2	0	205.318	24.973	126.64
 281	10	2	0	204.477	24.067	127.31
 282	10	2	0	203.853	24.403	128.52
 283	10	1	0	202.807	23.419	129.45
 284	10	2	0	202.584	24.629	130.65
 285	10	2	0	201.792	24.532	131.81
 286	10	2	0	201.725	25.622	132.68
 287	10	2	0	202.428	26.785	132.4
 288	10	2	0	203.212	26.876	131.25
 289	10	2	0	203.302	25.786	130.34
 290	10	2	0	204.041	25.651	129.1
 291	10	3	0	205.051	27.543	128.86
 292	10	3	0	208.119	27.003	123.71
 293	10	3	0	208.242	25.067	122.16
 294	10	3	0	206.988	22.993	122.66
 295	10	3	0	205.603	22.829	124.69
 296	10	3	0	204.309	23.081	126.88
 297	10	3	0	201.241	23.621	132.03
 298	10	3	0	201.117	25.557	133.58
 299	10	3	0	202.371	27.63	133.08
 300	10	3	0	203.756	27.795	131.04
 301	11	2	0	102.35	127.923	26.74
 302	11	2	0	101.204	127.311	26.22
 303	11	1	0	99.898	126.643	27.11
 304	11	2	0	99.055	126.171	25.69
 305	11	2	0	97.809	125.515	25.63
 306	11	2	0	97.267	125.205	24.38
 307	11	2	0	97.945	125.537	23.22
 308	11	2	0	99.181	126.187	23.29
 309	11	2	0	99.761	126.518	24.54
 310	11	2	0	101.013	127.182	24.85
 311	11	2	0	102.018	127.692	24.01
 312	11	2	0	103.164	128.305	24.52
 313	11	1	0	104.469	128.972	23.64
 314	11	2	0	105.313	129.445	25.06
 315	11	2	0	106.559	130.1	25.12
 316	11	2	0	107.101	130.411	26.37
 317	11	2	0	106.423	130.079	27.53
 318	11	2	0	105.187	129.428	27.46
 319	11	2	0	104.607	129.098	26.21
 320	11	2	0	103.355	128.434	25.9
 321	11	3	0	102.469	128.008	27.82
 322	11	3	0	97.276	125.254	26.54
 323	11	3	0	96.306	124.699	24.32
 324	11	3	0	97.516	125.291	22.25
 325	11	3	0	99.699	126.44	22.36
 326	11	3	0	101.899	127.608	22.93
 327	11	3	0	107.092	130.362	24.21
 328	11	3	0	108.062	130.917	26.42
 329	11	3	0	106.851	130.324	28.5
 330	11	3	0	104.669	129.175	28.38
 331	12	2	0	76.187	49.67	205.14
 332	12	2	0	76.258	50.708	206.08
 333	12	1	0	75.925	50.617	207.76
 334	12	2	0	76.268	52.279	208.01
 335	12	2	0	76.205	52.977	209.23
 336	12	2	0	76.52	54.336	209.25
 337	12	2	0	76.89	54.991	208.09
 338	12	2	0	76.951	54.294	206.88
 339	12	2	0	76.637	52.91	206.82
 340	12	2	0	76.631	51.993	205.7
 341	12	2	0	76.932	52.202	204.34
 342	12	2	0	76.862	51.164	203.4
 343	12	1	0	77.195	51.255	201.73
 344	12	2	0	76.852	49.593	201.47
 345	12	2	0	76.915	48.895	200.25
 346	12	2	0	76.6	47.536	200.23
 347	12	2	0	76.23	46.881	201.39
 348	12	2	0	76.168	47.578	202.6
 349	12	2	0	76.483	48.961	202.66
 350	12	2	0	76.489	49.879	203.79
 351	12	3	0	75.893	48.676	205.47
 352	12	3	0	75.915	52.465	210.15
 353	12	3	0	76.474	54.883	210.19
 354	12	3	0	77.134	56.05	208.12
 355	12	3	0	77.244	54.823	205.98
 356	12	3	0	77.227	53.196	204.01
 357	12	3	0	77.205	49.407	199.34
 358	12	3	0	76.646	46.989	199.29
 359	12	3	0	75.985	45.821	201.37
 360	12	3	0	75.876	47.049	203.51
 361	13	2	0	177.742	153.565	102.65
 362	13	2	0	178.301	152.292	102.49
 363	13	1	0	177.531	150.784	102.75
 364	13	2	0	178.934	149.89	102.33
 365	13	2	0	179.066	148.486	102.31
 366	13	2	0	180.29	147.925	101.95
 367	13	2	0	181.362	148.736	101.61
 368	13	2	0	181.225	150.128	101.63
 369	13	2	0	179.994	150.732	102.0
 370	13	2	0	179.622	152.132	102.09
 371	13	2	0	180.37	153.299	101.85
 372	13	2	0	179.81	154.571	102.0
 373	13	1	0	180.581	156.08	101.74
 374	13	2	0	179.178	156.974	102.16
 375	13	2	0	179.046	158.377	102.18
 376	13	2	0	177.822	158.939	102.54
 377	13	2	0	176.75	158.127	102.88
 378	13	2	0	176.886	156.736	102.86
 379	13	2	0	178.117	156.131	102.49
 380	13	2	0	178.489	154.732	102.4
 381	13	3	0	176.705	153.655	102.96
 382	13	3	0	178.227	147.849	102.58
 383	13	3	0	180.401	146.843	101.93
 384	13	3	0	182.312	148.292	101.32
 385	13	3	0	182.076	150.749	101.36
 386	13	3	0	181.407	153.208	101.53
 387	13	3	0	179.884	159.015	101.91
 388	13	3	0	177.71	160.02	102.56
 389	13	3	0	175.799	158.572	103.17
 390	13	3	0	176.036	156.114	103.13
 391	14	4	0	119.097	97.87	49.65
 392	14	4	0	120.571	98.197	49.82
 393	14	4	0	120.84	99.696	49.67
 394	14	4	0	122.331	100.039	49.61
 395	14	4	0	123.057	99.798	50.93
 396	14	4	0	124.575	99.965	50.83
 397	14	4	0	125.026	101.395	50.53
 398	14	4	0	126.547	101.517	50.69
 399	14	4	0	127.101	102.93	50.4
 400	14	4	0	126.582	103.963	51.41
 401	14	2	0	127.238	105.314	51.29
 402	14	2	0	126.639	106.417	51.92
 403	14	2	0	127.19	107.704	51.82
 404	14	2	0	126.58	108.811	52.43
 405	14	2	0	127.133	110.087	52.31
 406	14	2	0	128.299	110.271	51.58
 407	14	2	0	128.921	109.179	50.97
 408	14	2	0	128.379	107.888	51.09
 409	14	2	0	128.994	106.776	50.48
 410	14	2	0	128.442	105.488	50.59
 411	14	4	0	129.127	104.343	49.88
 412	14	4	0	128.656	102.945	50.34
 413	14	4	0	129.333	102.502	51.66
 414	14	4	0	130.855	102.283	51.61
 415	14	4	0	131.28	101.273	50.53
 416	14	4	0	132.741	100.83	50.66
 417	14	4	0	132.975	99.863	51.83
 418	14	4	0	134.433	99.418	51.97
 419	14	4	0	134.954	98.607	50.78
 420	14	4	0	136.367	98.1	51.03
 421	14	3	0	118.484	98.384	50.39
 422	14	3	0	118.749	98.161	48.65
 423	14	3	0	118.931	96.794	49.76
 424	14	3	0	121.154	97.64	49.08
 425	14	3	0	120.885	97.853	50.81
 426	14	3	0	120.365	100.244	50.49
 427	14	3	0	120.371	100.05	48.74
 428	14	3	0	122.426	101.096	49.34
 429	14	3	0	122.806	99.462	48.81
 430	14	3	0	122.66	100.474	51.7
 431	14	3	0	122.865	98.778	51.28
 432	14	3	0	125.008	99.646	51.79
 433	14	3	0	124.972	99.285	50.07
 434	14	3	0	124.737	101.673	49.51
 435	14	3	0	124.519	102.083	51.21
 436	14	3	0	127.027	100.806	50.0
 437	14	3	0	126.813	101.212	51.7
 438	14	3	0	126.738	103.227	49.41
 439	14	3	0	126.735	103.601	52.44
 440	14	3	0	125.503	104.091	51.27
 441	14	3	0	125.718	106.271	52.48
 442	14	3	0	125.667	108.688	53.01
 443	14	3	0	126.651	110.936	52.79
 444	14	3	0	128.728	111.263	51.48
 445	14	3	0	129.832	109.344	50.4
 446	14	3	0	129.91	106.915	49.91
 447	14	3	0	128.932	104.45	48.81
 448	14	3	0	130.212	104.437	50.01
 449	14	3	0	128.948	102.234	49.56
 450	14	3	0	128.896	101.553	51.99
 451	14	3	0	129.128	103.229	52.46
 452	14	3	0	131.162	101.927	52.6
 453	14	3	0	131.377	103.234	51.45
 454	14	3	0	130.63	100.39	50.57
 455	14	3	0	131.15	101.729	49.55
 456	14	3	0	133.015	100.335	49.72
 457	14	3	0	133.389	101.707	50.76
 458	14	3	0	132.683	100.343	52.77
 459	14	3	0	132.335	98.981	51.71
 460	14	3	0	134.515	98.801	52.88
 461	14	3	0	135.069	100.299	52.13
 462	14	3	0	134.962	99.215	49.87
 463	14	3	0	134.294	97.753	50.6
 464	14	3	0	136.72	97.523	50.17
 465	14	3	0	137.061	98.933	51.18
 466	14	3	0	136.401	97.456	51.92
 467	15	4	0	24.28	207.169	162.78
 468	15	4	0	24.149	206.996	161.27
 469	15	4	0	25.384	206.323	160.67
 470	15	4	0	25.393	206.335	159.14
 471	15	4	0	24.311	205.449	158.52
 472	15	4	0	24.195	205.595	157.0
 473	15	4	0	25.424	205.103	156.24
 474	15	4	0	25.129	205.064	154.73
 475	15	4	0	26.311	204.575	153.87
 476	15	4	0	26.677	203.113	154.17
 477	15	2	0	27.702	202.541	153.22
 478	15	2	0	28.353	201.347	153.58
 479	15	2	0	29.33	200.773	152.75
 480	15	2	0	29.998	199.592	153.11
 481	15	2	0	30.979	199.045	152.29
 482	15	2	0	31.305	199.672	151.09
 483	15	2	0	30.644	200.842	150.71
 484	15	2	0	29.652	201.404	151.53
 485	15	2	0	28.974	202.579	151.16
 486	15	2	0	27.992	203.147	151.99
 487	15	4	0	27.33	204.433	151.56
 488	15	4	0	26.047	204.779	152.35
 489	15	4	0	24.813	204.001	151.82
 490	15	4	0	24.363	204.325	150.39
 491	15	4	0	24.067	205.813	150.17
 492	15	4	0	23.348	206.104	148.85
 493	15	4	0	21.87	205.698	148.87
 494	15	4	0	21.137	205.974	147.56
 495	15	4	0	21.05	207.46	147.2
 496	15	4	0	20.217	207.677	145.94
 497	15	3	0	24.399	206.206	163.28
 498	15	3	0	25.143	207.795	163.02
 499	15	3	0	23.386	207.653	163.18
 500	15	3	0	23.998	207.975	160.81
 501	15	3	0	23.253	206.398	161.07
 502	15	3	0	25.459	205.29	161.03
 503	15	3	0	26.282	206.844	161.02
 504	15	3	0	26.376	205.988	158.8
 505	15	3	0	25.285	207.367	158.78
 506	15	3	0	24.503	204.4	158.78
 507	15	3	0	23.335	205.703	158.95
 508	15	3	0	23.316	205.025	156.68
 509	15	3	0	23.997	206.642	156.75
 510	15	3	0	26.277	205.763	156.43
 511	15	3	0	25.695	204.106	156.59
 512	15	3	0	24.844	206.071	154.4
 513	15	3	0	24.26	204.419	154.57
 514	15	3	0	27.181	205.196	154.13
 515	15	3	0	25.781	202.484	154.13
 516	15	3	0	27.077	203.05	155.19
 517	15	3	0	28.104	200.866	154.52
 518	15	3	0	29.759	199.09	154.05
 519	15	3	0	31.49	198.132	152.58
 520	15	3	0	32.074	199.253	150.44
 521	15	3	0	30.914	201.317	149.77
 522	15	3	0	29.223	203.07	150.22
 523	15	3	0	28.059	205.243	151.7
 524	15	3	0	27.115	204.387	150.49
 525	15	3	0	25.856	205.85	152.2
 526	15	3	0	23.952	204.204	152.47
 527	15	3	0	24.992	202.92	151.88
 528	15	3	0	23.459	203.734	150.2
 529	15	3	0	25.109	203.983	149.66
 530	15	3	0	23.471	206.207	151.0
 531	15	3	0	25.015	206.366	150.17
 532	15	3	0	23.422	207.182	148.67
 533	15	3	0	23.865	205.602	148.03
 534	15	3	0	21.786	204.624	149.08
 535	15	3	0	21.356	206.216	149.69
 536	15	3	0	20.117	205.573	147.64
 537	15	3	0	21.627	205.42	146.74
 538	15	3	0	22.047	207.878	147.03
 539	15	3	0	20.6	208.016	148.03
 540	15	3	0	20.166	208.744	145.7
 541	15	3	0	20.663	207.165	145.08
 542	15	3	0	19.198	207.306	146.08
 543	16	4	0	29.044	99.189	184.72
 544	16	4	0	29.303	100.624	185.15
 545	16	4	0	30.287	101.327	184.21
 546	16	4	0	30.749	102.691	184.74
 547	16	4	0	29.637	103.739	184.75
 548	16	4	0	30.04	105.046	185.44
 549	16	4	0	31.14	105.82	184.71
 550	16	4	0	31.309	107.213	185.32
 551	16	4	0	32.397	108.077	184.65
 552	16	4	0	32.047	108.405	183.19
 553	16	2	0	32.989	109.394	182.55
 554	16	2	0	32.979	109.529	181.15
 555	16	2	0	33.844	110.419	180.5
 556	16	2	0	33.851	110.539	179.1
 557	16	2	0	34.731	111.416	178.46
 558	16	2	0	35.614	112.181	179.22
 559	16	2	0	35.614	112.078	180.61
 560	16	2	0	34.733	111.203	181.27
 561	16	2	0	34.716	111.089	182.67
 562	16	2	0	33.843	110.202	183.32
 563	16	4	0	33.903	110.095	184.82
 564	16	4	0	32.693	109.375	185.46
 565	16	4	0	31.465	110.309	185.6
 566	16	4	0	31.622	111.498	186.56
 567	16	4	0	32.019	111.077	187.98
 568	16	4	0	31.895	112.205	189.01
 569	16	4	0	30.442	112.516	189.39
 570	16	4	0	30.3	113.648	190.41
 571	16	4	0	30.919	113.332	191.77
 572	16	4	0	30.648	114.447	192.77
 573	16	3	0	28.619	99.147	183.71
 574	16	3	0	29.971	98.607	184.73
 575	16	3	0	28.339	98.708	185.4
 576	16	3	0	29.696	100.628	186.17
 577	16	3	0	28.345	101.156	185.17
 578	16	3	0	29.837	101.445	183.22
 579	16	3	0	31.172	100.693	184.08
 580	16	3	0	31.566	103.041	184.09
 581	16	3	0	31.168	102.571	185.74
 582	16	3	0	29.313	103.946	183.72
 583	16	3	0	28.764	103.349	185.28
 584	16	3	0	29.144	105.674	185.51
 585	16	3	0	30.358	104.84	186.46
 586	16	3	0	32.086	105.274	184.76
 587	16	3	0	30.874	105.905	183.65
 588	16	3	0	31.556	107.097	186.39
 589	16	3	0	30.344	107.729	185.28
 590	16	3	0	33.324	107.486	184.65
 591	16	3	0	31.03	108.807	183.13
 592	16	3	0	32.071	107.48	182.6
 593	16	3	0	32.295	108.918	180.57
 594	16	3	0	33.171	109.947	178.49
 595	16	3	0	34.727	111.499	177.38
 596	16	3	0	36.306	112.859	178.73
 597	16	3	0	36.312	112.685	181.18
 598	16	3	0	35.402	111.69	183.26
 599	16	3	0	34.818	109.546	185.08
 600	16	3	0	34.012	111.098	185.25
 601	16	3	0	32.994	109.061	186.46
 602	16	3	0	30.607	109.73	185.96
 603	16	3	0	31.175	110.708	184.62
 604	16	3	0	30.658	112.021	186.58
 605	16	3	0	32.349	112.219	186.17
 606	16	3	0	31.412	110.222	188.31
 607	16	3	0	33.063	110.741	187.97
 608	16	3	0	32.441	111.891	189.91
 609	16	3	0	32.388	113.108	188.63
 610	16	3	0	29.884	112.809	188.49
 611	16	3	0	29.961	111.612	189.78
 612	16	3	0	29.23	113.853	190.55
 613	16	3	0	30.746	114.565	190.0
 614	16	3	0	32.001	113.198	191.69
 615	16	3	0	30.504	112.395	192.16
 616	16	3	0	31.097	114.202	193.74
 617	16	3	0	31.085	115.392	192.43
 618	16	3	0	29.575	114.592	192.92
 619	17	4	0	138.359	219.844	84.34
 620	17	4	0	137.568	218.651	83.82
 621	17	4	0	137.987	217.354	84.52
 622	17	4	0	137.381	216.101	83.88
 623	17	4	0	135.868	216.0	84.07
 624	17	4	0	135.231	214.853	83.28
 625	17	4	0	135.661	213.461	83.75
 626	17	4	0	134.803	212.384	83.07
 627	17	4	0	135.159	210.94	83.49
 628	17	4	0	134.891	210.686	84.98
 629	17	2	0	135.052	209.244	85.38
 630	17	2	0	135.155	208.935	86.75
 631	17	2	0	135.325	207.613	87.19
 632	17	2	0	135.451	207.305	88.56
 633	17	2	0	135.636	205.986	88.97
 634	17	2	0	135.7	204.962	88.04
 635	17	2	0	135.569	205.253	86.68
 636	17	2	0	135.378	206.573	86.24
 637	17	2	0	135.241	206.883	84.87
 638	17	2	0	135.064	208.208	84.44
 639	17	4	0	134.965	208.48	82.96
 640	17	4	0	134.431	209.884	82.61
 641	17	4	0	132.886	209.962	82.7
 642	17	4	0	132.101	209.101	81.69
 643	17	4	0	132.47	209.39	80.23
 644	17	4	0	131.504	208.762	79.22
 645	17	4	0	130.159	209.492	79.15
 646	17	4	0	129.178	208.871	78.15
 647	17	4	0	129.653	208.932	76.69
 648	17	4	0	128.589	208.401	75.74
 649	17	3	0	138.21	219.99	85.41
 650	17	3	0	139.43	219.708	84.15
 651	17	3	0	138.043	220.757	83.82
 652	17	3	0	137.716	218.556	82.75
 653	17	3	0	136.503	218.847	83.99
 654	17	3	0	137.713	217.396	85.58
 655	17	3	0	139.079	217.264	84.48
 656	17	3	0	137.859	215.225	84.33
 657	17	3	0	137.631	216.084	82.81
 658	17	3	0	135.637	215.889	85.14
 659	17	3	0	135.388	216.926	83.74
 660	17	3	0	134.143	214.945	83.38
 661	17	3	0	135.457	214.967	82.21
 662	17	3	0	136.716	213.293	83.51
 663	17	3	0	135.557	213.402	84.84
 664	17	3	0	134.913	212.479	81.99
 665	17	3	0	133.753	212.588	83.31
 666	17	3	0	136.237	210.81	83.32
 667	17	3	0	133.877	211.008	85.24
 668	17	3	0	135.589	211.289	85.57
 669	17	3	0	135.118	209.741	87.48
 670	17	3	0	135.406	208.091	89.3
 671	17	3	0	135.733	205.761	90.03
 672	17	3	0	135.852	203.936	88.36
 673	17	3	0	135.621	204.438	85.96
 674	17	3	0	135.285	206.084	84.14
 675	17	3	0	135.97	208.365	82.53
 676	17	3	0	134.34	207.709	82.49
 677	17	3	0	134.717	210.089	81.57
 678	17	3	0	132.563	210.997	82.53
 679	17	3	0	132.55	209.69	83.7
 680	17	3	0	131.037	209.31	81.85
 681	17	3	0	132.238	208.035	81.91
 682	17	3	0	132.519	210.473	80.06
 683	17	3	0	133.472	208.991	80.03
 684	17	3	0	131.989	208.795	78.24
 685	17	3	0	131.346	207.706	79.47
 686	17	3	0	129.677	209.482	80.13
 687	17	3	0	130.325	210.544	78.89
 688	17	3	0	128.221	209.406	78.23
 689	17	3	0	128.979	207.829	78.43
 690	17	3	0	130.565	208.342	76.56
 691	17	3	0	129.891	209.967	76.42
 692	17	3	0	128.947	208.454	74.71
 693	17	3	0	128.356	207.354	75.96
 694	17	3	0	127.669	208.986	75.82
 695	18	4	0	182.653	53.42	40.17
 696	18	4	0	182.733	54.096	38.81
 697	18	4	0	184.178	54.424	38.43
 698	18	4	0	184.286	55.305	37.18
 699	18	4	0	183.852	54.59	35.9
 700	18	4	0	183.784	55.512	34.68
 701	18	4	0	185.142	56.064	34.24
 702	18	4	0	185.014	56.774	32.89
 703	18	4	0	186.336	57.364	32.35
 704	18	4	0	187.374	56.27	32.05
 705	18	2	0	188.61	56.785	31.36
 706	18	2	0	189.752	55.967	31.33
 707	18	2	0	190.94	56.396	30.72
 708	18	2	0	192.09	55.589	30.7
 709	18	2	0	193.267	56.038	30.1
 710	18	2	0	193.311	57.299	29.51
 711	18	2	0	192.175	58.109	29.52
 712	18	2	0	190.981	57.67	30.11
 713	18	2	0	189.825	58.472	30.12
 714	18	2	0	188.636	58.036	30.73
 715	18	4	0	187.443	58.96	30.74
 716	18	4	0	186.111	58.271	31.11
 717	18	4	0	185.486	57.524	29.9
 718	18	4	0	185.035	58.399	28.72
 719	18	4	0	184.038	59.491	29.12
 720	18	4	0	183.365	60.173	27.93
 721	18	4	0	182.303	59.294	27.26
 722	18	4	0	181.626	59.957	26.06
 723	18	4	0	180.819	61.209	26.41
 724	18	4	0	180.081	61.756	25.2
 725	18	3	0	183.211	52.481	40.18
 726	18	3	0	183.057	54.071	40.95
 727	18	3	0	181.612	53.197	40.42
 728	18	3	0	182.138	55.013	38.83
 729	18	3	0	182.284	53.428	38.07
 730	18	3	0	184.742	53.496	38.28
 731	18	3	0	184.658	54.952	39.26
 732	18	3	0	185.329	55.622	37.08
 733	18	3	0	183.692	56.215	37.32
 734	18	3	0	184.533	53.755	35.69
 735	18	3	0	182.856	54.157	36.03
 736	18	3	0	183.343	54.941	33.85
 737	18	3	0	183.098	56.343	34.88
 738	18	3	0	185.524	56.765	34.99
 739	18	3	0	185.857	55.239	34.17
 740	18	3	0	184.279	57.582	32.98
 741	18	3	0	184.608	56.06	32.16
 742	18	3	0	186.748	58.005	33.15
 743	18	3	0	186.93	55.488	31.43
 744	18	3	0	187.678	55.801	33.0
 745	18	3	0	189.718	54.985	31.8
 746	18	3	0	192.076	54.602	31.15
 747	18	3	0	194.15	55.405	30.09
 748	18	3	0	194.229	57.655	29.06
 749	18	3	0	192.229	59.092	29.05
 750	18	3	0	189.854	59.457	29.66
 751	18	3	0	187.646	59.754	31.47
 752	18	3	0	187.357	59.451	29.76
 753	18	3	0	185.412	59.06	31.41
 754	18	3	0	184.6	56.973	30.24
 755	18	3	0	186.186	56.773	29.52
 756	18	3	0	184.575	57.728	27.99
 757	18	3	0	185.9	58.85	28.22
 758	18	3	0	183.268	59.077	29.79
 759	18	3	0	184.569	60.262	29.7
 760	18	3	0	182.892	61.09	28.3
 761	18	3	0	184.121	60.475	27.2
 762	18	3	0	182.763	58.365	26.91
 763	18	3	0	181.541	59.009	28.0
 764	18	3	0	180.949	59.224	25.6
 765	18	3	0	182.384	60.204	25.3
 766	18	3	0	181.473	61.994	26.81
 767	18	3	0	180.091	60.97	27.2
 768	18	3	0	179.51	62.648	25.48
 769	18	3	0	180.784	62.042	24.41
 770	18	3	0	179.386	61.016	24.8
 771	19	4	0	90.141	153.976	137.32
 772	19	4	0	88.867	154.786	137.14
 773	19	4	0	88.995	155.789	135.99
 774	19	4	0	87.827	156.777	135.92
 775	19	4	0	86.506	156.119	135.52
 776	19	4	0	85.303	157.058	135.62
 777	19	4	0	85.339	158.226	134.63
 778	19	4	0	83.997	158.969	134.64
 779	19	4	0	83.932	160.166	133.66
 780	19	4	0	84.057	159.722	132.2
 781	19	2	0	83.817	160.834	131.21
 782	19	2	0	84.213	160.645	129.87
 783	19	2	0	84.034	161.649	128.91
 784	19	2	0	84.449	161.47	127.58
 785	19	2	0	84.279	162.486	126.64
 786	19	2	0	83.694	163.69	127.01
 787	19	2	0	83.27	163.879	128.33
 788	19	2	0	83.43	162.866	129.29
 789	19	2	0	83.005	163.038	130.62
 790	19	2	0	83.18	162.027	131.58
 791	19	4	0	82.741	162.289	133.0
 792	19	4	0	82.652	161.023	133.88
 793	19	4	0	81.336	160.239	133.64
 794	19	4	0	80.036	160.956	134.05
 795	19	4	0	80.023	161.404	135.51
 796	19	4	0	78.643	161.85	136.0
 797	19	4	0	77.682	160.679	136.24
 798	19	4	0	76.293	161.109	136.72
 799	19	4	0	76.297	161.79	138.09
 800	19	4	0	74.881	162.092	138.56
 801	19	3	0	90.383	153.406	136.42
 802	19	3	0	90.988	154.63	137.56
 803	19	3	0	90.025	153.269	138.15
 804	19	3	0	88.64	155.315	138.07
 805	19	3	0	88.042	154.091	136.95
 806	19	3	0	89.087	155.254	135.04
 807	19	3	0	89.921	156.363	136.12
 808	19	3	0	88.08	157.549	135.19
 809	19	3	0	87.72	157.284	136.89
 810	19	3	0	86.584	155.726	134.5
 811	19	3	0	86.305	155.263	136.17
 812	19	3	0	84.399	156.463	135.44
 813	19	3	0	85.221	157.446	136.64
 814	19	3	0	86.144	158.918	134.9
 815	19	3	0	85.554	157.839	133.63
 816	19	3	0	83.8	159.328	135.65
 817	19	3	0	83.207	158.251	134.39
 818	19	3	0	84.792	160.813	133.89
 819	19	3	0	83.349	158.913	131.99
 820	19	3	0	85.065	159.325	132.03
 821	19	3	0	84.683	159.705	129.59
 822	19	3	0	84.911	160.537	127.27
 823	19	3	0	84.606	162.336	125.61
 824	19	3	0	83.568	164.486	126.29